{
    "0": {
        "symbol": "H",
        "name": "Hydrogen",
        "atomic_number": 1,
        "atomic_mass": 1.008,
        "electronegativity": 2.2,
        "melting_point": 14.01,
        "boiling_point": 20.28,
        "density": 8.988e-05,
        "nmr_data": {
            "spin": 0.5,
            "gyromagnetic_ratio": 42.576,
            "chemical_shift": "Varies based on bonding environment"
        }
    },
    "1": {
        "symbol": "He",
        "name": "Helium",
        "atomic_number": 2,
        "atomic_mass": 4.0026,
        "electronegativity": null,
        "melting_point": 0.95,
        "boiling_point": 4.22,
        "density": 0.0001785,
        "nmr_data": {
            "spin": 0,
            "gyromagnetic_ratio": null,
            "chemical_shift": "N/A for NMR"
        }
    },
    "01": {
        "symbol": "Li",
        "name": "Lithium",
        "atomic_number": 3,
        "atomic_mass": 6.94,
        "electronegativity": 0.98,
        "melting_point": 453.69,
        "boiling_point": 1560,
        "density": 0.534,
        "nmr_data": {
            "spin": 1.5,
            "gyromagnetic_ratio": 16.546,
            "chemical_shift": "Typically found in organolithium compounds"
        }
    },
    "10": {
        "symbol": "Be",
        "name": "Beryllium",
        "atomic_number": 4,
        "atomic_mass": 9.0122,
        "electronegativity": 1.57,
        "melting_point": 1560,
        "boiling_point": 2742,
        "density": 1.85,
        "nmr_data": {
            "spin": 1.5,
            "gyromagnetic_ratio": 5.6,
            "chemical_shift": "Limited data available due to rarity in NMR studies"
        }
    },
    "11": {
        "symbol": "B",
        "name": "Boron",
        "atomic_number": 5,
        "atomic_mass": 10.81,
        "electronegativity": 2.04,
        "melting_point": 2349,
        "boiling_point": 4200,
        "density": 2.34,
        "nmr_data": {
            "spin": 1.5,
            "gyromagnetic_ratio": 10.74,
            "chemical_shift": "Found in boron-containing compounds"
        }
    },
    "101": {
        "symbol": "C",
        "name": "Carbon",
        "atomic_number": 6,
        "atomic_mass": 12.011,
        "electronegativity": 2.55,
        "melting_point": null,
        "boiling_point": null,
        "density": 2.267,
        "nmr_data": {
            "spin": 0.5,
            "gyromagnetic_ratio": 10.705,
            "chemical_shift": "Common in organic compounds"
        }
    },
    "100": {
        "symbol": "N",
        "name": "Nitrogen",
        "atomic_number": 7,
        "atomic_mass": 14.007,
        "electronegativity": 3.04,
        "melting_point": 63.15,
        "boiling_point": 77.36,
        "density": 0.0012506,
        "nmr_data": {
            "spin": 1,
            "gyromagnetic_ratio": -2.71,
            "chemical_shift": "Varies in nitrogen compounds"
        }
    },
    "111": {
        "symbol": "O",
        "name": "Oxygen",
        "atomic_number": 8,
        "atomic_mass": 15.999,
        "electronegativity": 3.44,
        "melting_point": 54.36,
        "boiling_point": 90.2,
        "density": 0.001429,
        "nmr_data": {
            "spin": 2.5,
            "gyromagnetic_ratio": -5.77,
            "chemical_shift": "Rarely observed in NMR"
        }
    },
    "1010": {
        "symbol": "F",
        "name": "Fluorine",
        "atomic_number": 9,
        "atomic_mass": 18.998,
        "electronegativity": 3.98,
        "melting_point": 53.48,
        "boiling_point": 85.03,
        "density": 0.001696,
        "nmr_data": {
            "spin": 0.5,
            "gyromagnetic_ratio": 40.08,
            "chemical_shift": "Common in fluorinated compounds"
        }
    },
    "1101": {
        "symbol": "Ne",
        "name": "Neon",
        "atomic_number": 10,
        "atomic_mass": 20.18,
        "electronegativity": null,
        "melting_point": 24.56,
        "boiling_point": 27.07,
        "density": 0.0008999,
        "nmr_data": {
            "spin": 0,
            "gyromagnetic_ratio": null,
            "chemical_shift": "N/A for NMR"
        }
    }
}